PSF

       4 !NTITLE
 REMARKS original generated structure x-plor psf file
 REMARKS topology ./top3.inp 
 REMARKS segment RA0 { first none; last none; auto none  }
 REMARKS segment RB0 { first none; last none; auto none  }

     328 !NATOM
       1 RA0  50   DFH  B1   A1     0.000000       38.0290           0
       2 RA0  50   DFH  B2   A2     0.000000       54.0280           0
       3 RA0  50   DFH  B3   A3     0.000000       24.0220           0
       4 RA0  50   DFH  B4   A4     0.000000       24.0220           0
       5 RA0  50   DFH  B5   A5     0.000000       43.0200           0
       6 RA0  50   DFH  B6   A6     0.000000       59.0190           0
       7 RA0  50   DFH  B7   A7     0.000000       69.0050           0
       8 RB0  1    GUA  P    BP    -1.000000       94.9700           0
       9 RB0  1    GUA  C1   BC1    0.000000       48.0650           0
      10 RB0  1    GUA  C2   BC2    0.000000       51.0450           0
      11 RB0  1    GUA  NA   N1C    0.000000       26.0180           0
      12 RB0  1    GUA  NB   CNC    0.000000       39.0370           0
      13 RB0  1    GUA  NC   OCN    0.000000       43.0250           0
      14 RB0  1    GUA  ND   NCN    0.000000       42.0410           0
      15 RB0  2    GUA  P    BP    -1.000000       94.9700           0
      16 RB0  2    GUA  C1   BC1    0.000000       48.0650           0
      17 RB0  2    GUA  C2   BC2    0.000000       51.0450           0
      18 RB0  2    GUA  NA   N1C    0.000000       26.0180           0
      19 RB0  2    GUA  NB   CNC    0.000000       39.0370           0
      20 RB0  2    GUA  NC   OCN    0.000000       43.0250           0
      21 RB0  2    GUA  ND   NCN    0.000000       42.0410           0
      22 RB0  3    GUA  P    BP    -1.000000       94.9700           0
      23 RB0  3    GUA  C1   BC1    0.000000       48.0650           0
      24 RB0  3    GUA  C2   BC2    0.000000       51.0450           0
      25 RB0  3    GUA  NA   N1C    0.000000       26.0180           0
      26 RB0  3    GUA  NB   CNC    0.000000       39.0370           0
      27 RB0  3    GUA  NC   OCN    0.000000       43.0250           0
      28 RB0  3    GUA  ND   NCN    0.000000       42.0410           0
      29 RB0  4    ADE  P    BP    -1.000000       94.9700           0
      30 RB0  4    ADE  C1   BC1    0.000000       48.0650           0
      31 RB0  4    ADE  C2   BC2    0.000000       51.0450           0
      32 RB0  4    ADE  NA   N1C    0.000000       26.0180           0
      33 RB0  4    ADE  NB   CNC    0.000000       39.0370           0
      34 RB0  4    ADE  NC   NCN    0.000000       42.0410           0
      35 RB0  4    ADE  ND   N2C    0.000000       27.0260           0
      36 RB0  5    CYT  P    BP    -1.000000       94.9700           0
      37 RB0  5    CYT  C1   BC1    0.000000       48.0650           0
      38 RB0  5    CYT  C2   BC2    0.000000       51.0450           0
      39 RB0  5    CYT  NA   NCC    0.000000       42.0410           0
      40 RB0  5    CYT  NB   NCN    0.000000       42.0410           0
      41 RB0  5    CYT  NC   CO     0.000000       28.0100           0
      42 RB0  6    GUA  P    BP    -1.000000       94.9700           0
      43 RB0  6    GUA  C1   BC1    0.000000       48.0650           0
      44 RB0  6    GUA  C2   BC2    0.000000       51.0450           0
      45 RB0  6    GUA  NA   N1C    0.000000       26.0180           0
      46 RB0  6    GUA  NB   CNC    0.000000       39.0370           0
      47 RB0  6    GUA  NC   OCN    0.000000       43.0250           0
      48 RB0  6    GUA  ND   NCN    0.000000       42.0410           0
      49 RB0  7    GUA  P    BP    -1.000000       94.9700           0
      50 RB0  7    GUA  C1   BC1    0.000000       48.0650           0
      51 RB0  7    GUA  C2   BC2    0.000000       51.0450           0
      52 RB0  7    GUA  NA   N1C    0.000000       26.0180           0
      53 RB0  7    GUA  NB   CNC    0.000000       39.0370           0
      54 RB0  7    GUA  NC   OCN    0.000000       43.0250           0
      55 RB0  7    GUA  ND   NCN    0.000000       42.0410           0
      56 RB0  8    URA  P    BP    -1.000000       94.9700           0
      57 RB0  8    URA  C1   BC1    0.000000       48.0650           0
      58 RB0  8    URA  C2   BC2    0.000000       51.0450           0
      59 RB0  8    URA  NA   NCC    0.000000       42.0410           0
      60 RB0  8    URA  NB   OCN    0.000000       43.0250           0
      61 RB0  8    URA  NC   CO     0.000000       28.0100           0
      62 RB0  9    CYT  P    BP    -1.000000       94.9700           0
      63 RB0  9    CYT  C1   BC1    0.000000       48.0650           0
      64 RB0  9    CYT  C2   BC2    0.000000       51.0450           0
      65 RB0  9    CYT  NA   NCC    0.000000       42.0410           0
      66 RB0  9    CYT  NB   NCN    0.000000       42.0410           0
      67 RB0  9    CYT  NC   CO     0.000000       28.0100           0
      68 RB0  10   GUA  P    BP    -1.000000       94.9700           0
      69 RB0  10   GUA  C1   BC1    0.000000       48.0650           0
      70 RB0  10   GUA  C2   BC2    0.000000       51.0450           0
      71 RB0  10   GUA  NA   N1C    0.000000       26.0180           0
      72 RB0  10   GUA  NB   CNC    0.000000       39.0370           0
      73 RB0  10   GUA  NC   OCN    0.000000       43.0250           0
      74 RB0  10   GUA  ND   NCN    0.000000       42.0410           0
      75 RB0  11   GUA  P    BP    -1.000000       94.9700           0
      76 RB0  11   GUA  C1   BC1    0.000000       48.0650           0
      77 RB0  11   GUA  C2   BC2    0.000000       51.0450           0
      78 RB0  11   GUA  NA   N1C    0.000000       26.0180           0
      79 RB0  11   GUA  NB   CNC    0.000000       39.0370           0
      80 RB0  11   GUA  NC   OCN    0.000000       43.0250           0
      81 RB0  11   GUA  ND   NCN    0.000000       42.0410           0
      82 RB0  12   GUA  P    BP    -1.000000       94.9700           0
      83 RB0  12   GUA  C1   BC1    0.000000       48.0650           0
      84 RB0  12   GUA  C2   BC2    0.000000       51.0450           0
      85 RB0  12   GUA  NA   N1C    0.000000       26.0180           0
      86 RB0  12   GUA  NB   CNC    0.000000       39.0370           0
      87 RB0  12   GUA  NC   OCN    0.000000       43.0250           0
      88 RB0  12   GUA  ND   NCN    0.000000       42.0410           0
      89 RB0  13   URA  P    BP    -1.000000       94.9700           0
      90 RB0  13   URA  C1   BC1    0.000000       48.0650           0
      91 RB0  13   URA  C2   BC2    0.000000       51.0450           0
      92 RB0  13   URA  NA   NCC    0.000000       42.0410           0
      93 RB0  13   URA  NB   OCN    0.000000       43.0250           0
      94 RB0  13   URA  NC   CO     0.000000       28.0100           0
      95 RB0  14   CYT  P    BP    -1.000000       94.9700           0
      96 RB0  14   CYT  C1   BC1    0.000000       48.0650           0
      97 RB0  14   CYT  C2   BC2    0.000000       51.0450           0
      98 RB0  14   CYT  NA   NCC    0.000000       42.0410           0
      99 RB0  14   CYT  NB   NCN    0.000000       42.0410           0
     100 RB0  14   CYT  NC   CO     0.000000       28.0100           0
     101 RB0  15   CYT  P    BP    -1.000000       94.9700           0
     102 RB0  15   CYT  C1   BC1    0.000000       48.0650           0
     103 RB0  15   CYT  C2   BC2    0.000000       51.0450           0
     104 RB0  15   CYT  NA   NCC    0.000000       42.0410           0
     105 RB0  15   CYT  NB   NCN    0.000000       42.0410           0
     106 RB0  15   CYT  NC   CO     0.000000       28.0100           0
     107 RB0  16   ADE  P    BP    -1.000000       94.9700           0
     108 RB0  16   ADE  C1   BC1    0.000000       48.0650           0
     109 RB0  16   ADE  C2   BC2    0.000000       51.0450           0
     110 RB0  16   ADE  NA   N1C    0.000000       26.0180           0
     111 RB0  16   ADE  NB   CNC    0.000000       39.0370           0
     112 RB0  16   ADE  NC   NCN    0.000000       42.0410           0
     113 RB0  16   ADE  ND   N2C    0.000000       27.0260           0
     114 RB0  17   GUA  P    BP    -1.000000       94.9700           0
     115 RB0  17   GUA  C1   BC1    0.000000       48.0650           0
     116 RB0  17   GUA  C2   BC2    0.000000       51.0450           0
     117 RB0  17   GUA  NA   N1C    0.000000       26.0180           0
     118 RB0  17   GUA  NB   CNC    0.000000       39.0370           0
     119 RB0  17   GUA  NC   OCN    0.000000       43.0250           0
     120 RB0  17   GUA  ND   NCN    0.000000       42.0410           0
     121 RB0  18   ADE  P    BP    -1.000000       94.9700           0
     122 RB0  18   ADE  C1   BC1    0.000000       48.0650           0
     123 RB0  18   ADE  C2   BC2    0.000000       51.0450           0
     124 RB0  18   ADE  NA   N1C    0.000000       26.0180           0
     125 RB0  18   ADE  NB   CNC    0.000000       39.0370           0
     126 RB0  18   ADE  NC   NCN    0.000000       42.0410           0
     127 RB0  18   ADE  ND   N2C    0.000000       27.0260           0
     128 RB0  19   URA  P    BP    -1.000000       94.9700           0
     129 RB0  19   URA  C1   BC1    0.000000       48.0650           0
     130 RB0  19   URA  C2   BC2    0.000000       51.0450           0
     131 RB0  19   URA  NA   NCC    0.000000       42.0410           0
     132 RB0  19   URA  NB   OCN    0.000000       43.0250           0
     133 RB0  19   URA  NC   CO     0.000000       28.0100           0
     134 RB0  20   ADE  P    BP    -1.000000       94.9700           0
     135 RB0  20   ADE  C1   BC1    0.000000       48.0650           0
     136 RB0  20   ADE  C2   BC2    0.000000       51.0450           0
     137 RB0  20   ADE  NA   N1C    0.000000       26.0180           0
     138 RB0  20   ADE  NB   CNC    0.000000       39.0370           0
     139 RB0  20   ADE  NC   NCN    0.000000       42.0410           0
     140 RB0  20   ADE  ND   N2C    0.000000       27.0260           0
     141 RB0  21   URA  P    BP    -1.000000       94.9700           0
     142 RB0  21   URA  C1   BC1    0.000000       48.0650           0
     143 RB0  21   URA  C2   BC2    0.000000       51.0450           0
     144 RB0  21   URA  NA   NCC    0.000000       42.0410           0
     145 RB0  21   URA  NB   OCN    0.000000       43.0250           0
     146 RB0  21   URA  NC   CO     0.000000       28.0100           0
     147 RB0  22   URA  P    BP    -1.000000       94.9700           0
     148 RB0  22   URA  C1   BC1    0.000000       48.0650           0
     149 RB0  22   URA  C2   BC2    0.000000       51.0450           0
     150 RB0  22   URA  NA   NCC    0.000000       42.0410           0
     151 RB0  22   URA  NB   OCN    0.000000       43.0250           0
     152 RB0  22   URA  NC   CO     0.000000       28.0100           0
     153 RB0  23   CYT  P    BP    -1.000000       94.9700           0
     154 RB0  23   CYT  C1   BC1    0.000000       48.0650           0
     155 RB0  23   CYT  C2   BC2    0.000000       51.0450           0
     156 RB0  23   CYT  NA   NCC    0.000000       42.0410           0
     157 RB0  23   CYT  NB   NCN    0.000000       42.0410           0
     158 RB0  23   CYT  NC   CO     0.000000       28.0100           0
     159 RB0  24   GUA  P    BP    -1.000000       94.9700           0
     160 RB0  24   GUA  C1   BC1    0.000000       48.0650           0
     161 RB0  24   GUA  C2   BC2    0.000000       51.0450           0
     162 RB0  24   GUA  NA   N1C    0.000000       26.0180           0
     163 RB0  24   GUA  NB   CNC    0.000000       39.0370           0
     164 RB0  24   GUA  NC   OCN    0.000000       43.0250           0
     165 RB0  24   GUA  ND   NCN    0.000000       42.0410           0
     166 RB0  25   URA  P    BP    -1.000000       94.9700           0
     167 RB0  25   URA  C1   BC1    0.000000       48.0650           0
     168 RB0  25   URA  C2   BC2    0.000000       51.0450           0
     169 RB0  25   URA  NA   NCC    0.000000       42.0410           0
     170 RB0  25   URA  NB   OCN    0.000000       43.0250           0
     171 RB0  25   URA  NC   CO     0.000000       28.0100           0
     172 RB0  26   ADE  P    BP    -1.000000       94.9700           0
     173 RB0  26   ADE  C1   BC1    0.000000       48.0650           0
     174 RB0  26   ADE  C2   BC2    0.000000       51.0450           0
     175 RB0  26   ADE  NA   N1C    0.000000       26.0180           0
     176 RB0  26   ADE  NB   CNC    0.000000       39.0370           0
     177 RB0  26   ADE  NC   NCN    0.000000       42.0410           0
     178 RB0  26   ADE  ND   N2C    0.000000       27.0260           0
     179 RB0  27   URA  P    BP    -1.000000       94.9700           0
     180 RB0  27   URA  C1   BC1    0.000000       48.0650           0
     181 RB0  27   URA  C2   BC2    0.000000       51.0450           0
     182 RB0  27   URA  NA   NCC    0.000000       42.0410           0
     183 RB0  27   URA  NB   OCN    0.000000       43.0250           0
     184 RB0  27   URA  NC   CO     0.000000       28.0100           0
     185 RB0  28   CYT  P    BP    -1.000000       94.9700           0
     186 RB0  28   CYT  C1   BC1    0.000000       48.0650           0
     187 RB0  28   CYT  C2   BC2    0.000000       51.0450           0
     188 RB0  28   CYT  NA   NCC    0.000000       42.0410           0
     189 RB0  28   CYT  NB   NCN    0.000000       42.0410           0
     190 RB0  28   CYT  NC   CO     0.000000       28.0100           0
     191 RB0  29   URA  P    BP    -1.000000       94.9700           0
     192 RB0  29   URA  C1   BC1    0.000000       48.0650           0
     193 RB0  29   URA  C2   BC2    0.000000       51.0450           0
     194 RB0  29   URA  NA   NCC    0.000000       42.0410           0
     195 RB0  29   URA  NB   OCN    0.000000       43.0250           0
     196 RB0  29   URA  NC   CO     0.000000       28.0100           0
     197 RB0  30   GUA  P    BP    -1.000000       94.9700           0
     198 RB0  30   GUA  C1   BC1    0.000000       48.0650           0
     199 RB0  30   GUA  C2   BC2    0.000000       51.0450           0
     200 RB0  30   GUA  NA   N1C    0.000000       26.0180           0
     201 RB0  30   GUA  NB   CNC    0.000000       39.0370           0
     202 RB0  30   GUA  NC   OCN    0.000000       43.0250           0
     203 RB0  30   GUA  ND   NCN    0.000000       42.0410           0
     204 RB0  31   URA  P    BP    -1.000000       94.9700           0
     205 RB0  31   URA  C1   BC1    0.000000       48.0650           0
     206 RB0  31   URA  C2   BC2    0.000000       51.0450           0
     207 RB0  31   URA  NA   NCC    0.000000       42.0410           0
     208 RB0  31   URA  NB   OCN    0.000000       43.0250           0
     209 RB0  31   URA  NC   CO     0.000000       28.0100           0
     210 RB0  32   CYT  P    BP    -1.000000       94.9700           0
     211 RB0  32   CYT  C1   BC1    0.000000       48.0650           0
     212 RB0  32   CYT  C2   BC2    0.000000       51.0450           0
     213 RB0  32   CYT  NA   NCC    0.000000       42.0410           0
     214 RB0  32   CYT  NB   NCN    0.000000       42.0410           0
     215 RB0  32   CYT  NC   CO     0.000000       28.0100           0
     216 RB0  33   GUA  P    BP    -1.000000       94.9700           0
     217 RB0  33   GUA  C1   BC1    0.000000       48.0650           0
     218 RB0  33   GUA  C2   BC2    0.000000       51.0450           0
     219 RB0  33   GUA  NA   N1C    0.000000       26.0180           0
     220 RB0  33   GUA  NB   CNC    0.000000       39.0370           0
     221 RB0  33   GUA  NC   OCN    0.000000       43.0250           0
     222 RB0  33   GUA  ND   NCN    0.000000       42.0410           0
     223 RB0  34   ADE  P    BP    -1.000000       94.9700           0
     224 RB0  34   ADE  C1   BC1    0.000000       48.0650           0
     225 RB0  34   ADE  C2   BC2    0.000000       51.0450           0
     226 RB0  34   ADE  NA   N1C    0.000000       26.0180           0
     227 RB0  34   ADE  NB   CNC    0.000000       39.0370           0
     228 RB0  34   ADE  NC   NCN    0.000000       42.0410           0
     229 RB0  34   ADE  ND   N2C    0.000000       27.0260           0
     230 RB0  35   GUA  P    BP    -1.000000       94.9700           0
     231 RB0  35   GUA  C1   BC1    0.000000       48.0650           0
     232 RB0  35   GUA  C2   BC2    0.000000       51.0450           0
     233 RB0  35   GUA  NA   N1C    0.000000       26.0180           0
     234 RB0  35   GUA  NB   CNC    0.000000       39.0370           0
     235 RB0  35   GUA  NC   OCN    0.000000       43.0250           0
     236 RB0  35   GUA  ND   NCN    0.000000       42.0410           0
     237 RB0  36   URA  P    BP    -1.000000       94.9700           0
     238 RB0  36   URA  C1   BC1    0.000000       48.0650           0
     239 RB0  36   URA  C2   BC2    0.000000       51.0450           0
     240 RB0  36   URA  NA   NCC    0.000000       42.0410           0
     241 RB0  36   URA  NB   OCN    0.000000       43.0250           0
     242 RB0  36   URA  NC   CO     0.000000       28.0100           0
     243 RB0  37   ADE  P    BP    -1.000000       94.9700           0
     244 RB0  37   ADE  C1   BC1    0.000000       48.0650           0
     245 RB0  37   ADE  C2   BC2    0.000000       51.0450           0
     246 RB0  37   ADE  NA   N1C    0.000000       26.0180           0
     247 RB0  37   ADE  NB   CNC    0.000000       39.0370           0
     248 RB0  37   ADE  NC   NCN    0.000000       42.0410           0
     249 RB0  37   ADE  ND   N2C    0.000000       27.0260           0
     250 RB0  38   GUA  P    BP    -1.000000       94.9700           0
     251 RB0  38   GUA  C1   BC1    0.000000       48.0650           0
     252 RB0  38   GUA  C2   BC2    0.000000       51.0450           0
     253 RB0  38   GUA  NA   N1C    0.000000       26.0180           0
     254 RB0  38   GUA  NB   CNC    0.000000       39.0370           0
     255 RB0  38   GUA  NC   OCN    0.000000       43.0250           0
     256 RB0  38   GUA  ND   NCN    0.000000       42.0410           0
     257 RB0  39   ADE  P    BP    -1.000000       94.9700           0
     258 RB0  39   ADE  C1   BC1    0.000000       48.0650           0
     259 RB0  39   ADE  C2   BC2    0.000000       51.0450           0
     260 RB0  39   ADE  NA   N1C    0.000000       26.0180           0
     261 RB0  39   ADE  NB   CNC    0.000000       39.0370           0
     262 RB0  39   ADE  NC   NCN    0.000000       42.0410           0
     263 RB0  39   ADE  ND   N2C    0.000000       27.0260           0
     264 RB0  40   GUA  P    BP    -1.000000       94.9700           0
     265 RB0  40   GUA  C1   BC1    0.000000       48.0650           0
     266 RB0  40   GUA  C2   BC2    0.000000       51.0450           0
     267 RB0  40   GUA  NA   N1C    0.000000       26.0180           0
     268 RB0  40   GUA  NB   CNC    0.000000       39.0370           0
     269 RB0  40   GUA  NC   OCN    0.000000       43.0250           0
     270 RB0  40   GUA  ND   NCN    0.000000       42.0410           0
     271 RB0  41   URA  P    BP    -1.000000       94.9700           0
     272 RB0  41   URA  C1   BC1    0.000000       48.0650           0
     273 RB0  41   URA  C2   BC2    0.000000       51.0450           0
     274 RB0  41   URA  NA   NCC    0.000000       42.0410           0
     275 RB0  41   URA  NB   OCN    0.000000       43.0250           0
     276 RB0  41   URA  NC   CO     0.000000       28.0100           0
     277 RB0  42   GUA  P    BP    -1.000000       94.9700           0
     278 RB0  42   GUA  C1   BC1    0.000000       48.0650           0
     279 RB0  42   GUA  C2   BC2    0.000000       51.0450           0
     280 RB0  42   GUA  NA   N1C    0.000000       26.0180           0
     281 RB0  42   GUA  NB   CNC    0.000000       39.0370           0
     282 RB0  42   GUA  NC   OCN    0.000000       43.0250           0
     283 RB0  42   GUA  ND   NCN    0.000000       42.0410           0
     284 RB0  43   URA  P    BP    -1.000000       94.9700           0
     285 RB0  43   URA  C1   BC1    0.000000       48.0650           0
     286 RB0  43   URA  C2   BC2    0.000000       51.0450           0
     287 RB0  43   URA  NA   NCC    0.000000       42.0410           0
     288 RB0  43   URA  NB   OCN    0.000000       43.0250           0
     289 RB0  43   URA  NC   CO     0.000000       28.0100           0
     290 RB0  44   GUA  P    BP    -1.000000       94.9700           0
     291 RB0  44   GUA  C1   BC1    0.000000       48.0650           0
     292 RB0  44   GUA  C2   BC2    0.000000       51.0450           0
     293 RB0  44   GUA  NA   N1C    0.000000       26.0180           0
     294 RB0  44   GUA  NB   CNC    0.000000       39.0370           0
     295 RB0  44   GUA  NC   OCN    0.000000       43.0250           0
     296 RB0  44   GUA  ND   NCN    0.000000       42.0410           0
     297 RB0  45   GUA  P    BP    -1.000000       94.9700           0
     298 RB0  45   GUA  C1   BC1    0.000000       48.0650           0
     299 RB0  45   GUA  C2   BC2    0.000000       51.0450           0
     300 RB0  45   GUA  NA   N1C    0.000000       26.0180           0
     301 RB0  45   GUA  NB   CNC    0.000000       39.0370           0
     302 RB0  45   GUA  NC   OCN    0.000000       43.0250           0
     303 RB0  45   GUA  ND   NCN    0.000000       42.0410           0
     304 RB0  46   GUA  P    BP    -1.000000       94.9700           0
     305 RB0  46   GUA  C1   BC1    0.000000       48.0650           0
     306 RB0  46   GUA  C2   BC2    0.000000       51.0450           0
     307 RB0  46   GUA  NA   N1C    0.000000       26.0180           0
     308 RB0  46   GUA  NB   CNC    0.000000       39.0370           0
     309 RB0  46   GUA  NC   OCN    0.000000       43.0250           0
     310 RB0  46   GUA  ND   NCN    0.000000       42.0410           0
     311 RB0  47   CYT  P    BP    -1.000000       94.9700           0
     312 RB0  47   CYT  C1   BC1    0.000000       48.0650           0
     313 RB0  47   CYT  C2   BC2    0.000000       51.0450           0
     314 RB0  47   CYT  NA   NCC    0.000000       42.0410           0
     315 RB0  47   CYT  NB   NCN    0.000000       42.0410           0
     316 RB0  47   CYT  NC   CO     0.000000       28.0100           0
     317 RB0  48   URA  P    BP    -1.000000       94.9700           0
     318 RB0  48   URA  C1   BC1    0.000000       48.0650           0
     319 RB0  48   URA  C2   BC2    0.000000       51.0450           0
     320 RB0  48   URA  NA   NCC    0.000000       42.0410           0
     321 RB0  48   URA  NB   OCN    0.000000       43.0250           0
     322 RB0  48   URA  NC   CO     0.000000       28.0100           0
     323 RB0  49   CYT  P    BP    -1.000000       94.9700           0
     324 RB0  49   CYT  C1   BC1    0.000000       48.0650           0
     325 RB0  49   CYT  C2   BC2    0.000000       51.0450           0
     326 RB0  49   CYT  NA   NCC    0.000000       42.0410           0
     327 RB0  49   CYT  NB   NCN    0.000000       42.0410           0
     328 RB0  49   CYT  NC   CO     0.000000       28.0100           0

     377 !NBOND: bonds
       1       2       1       3       2       3       2       7
       3       4       4       6       4       5       5       6
       8       9       9      10       9      15      10      11
      11      12      11      14      12      13      13      14
      15      16      16      17      16      22      17      18
      18      19      18      21      19      20      20      21
      22      23      23      24      23      29      24      25
      25      26      25      28      26      27      27      28
      29      30      30      31      30      36      31      32
      32      33      32      35      33      34      34      35
      36      37      37      38      37      42      38      39
      39      40      39      41      40      41      42      43
      43      44      43      49      44      45      45      46
      45      48      46      47      47      48      49      50
      50      51      50      56      51      52      52      53
      52      55      53      54      54      55      56      57
      57      58      57      62      58      59      59      60
      59      61      60      61      62      63      63      64
      63      68      64      65      65      66      65      67
      66      67      68      69      69      70      69      75
      70      71      71      72      71      74      72      73
      73      74      75      76      76      77      76      82
      77      78      78      79      78      81      79      80
      80      81      82      83      83      84      83      89
      84      85      85      86      85      88      86      87
      87      88      89      90      90      91      90      95
      91      92      92      93      92      94      93      94
      95      96      96      97      96     101      97      98
      98      99      98     100      99     100     101     102
     102     103     102     107     103     104     104     105
     104     106     105     106     107     108     108     109
     108     114     109     110     110     111     110     113
     111     112     112     113     114     115     115     116
     115     121     116     117     117     118     117     120
     118     119     119     120     121     122     122     123
     122     128     123     124     124     125     124     127
     125     126     126     127     128     129     129     130
     129     134     130     131     131     132     131     133
     132     133     134     135     135     136     135     141
     136     137     137     138     137     140     138     139
     139     140     141     142     142     143     142     147
     143     144     144     145     144     146     145     146
     147     148     148     149     148     153     149     150
     150     151     150     152     151     152     153     154
     154     155     154     159     155     156     156     157
     156     158     157     158     159     160     160     161
     160     166     161     162     162     163     162     165
     163     164     164     165     166     167     167     168
     167     172     168     169     169     170     169     171
     170     171     172     173     173     174     173     179
     174     175     175     176     175     178     176     177
     177     178     179     180     180     181     180     185
     181     182     182     183     182     184     183     184
     185     186     186     187     186     191     187     188
     188     189     188     190     189     190     191     192
     192     193     192     197     193     194     194     195
     194     196     195     196     197     198     198     199
     198     204     199     200     200     201     200     203
     201     202     202     203     204     205     205     206
     205     210     206     207     207     208     207     209
     208     209     210     211     211     212     211     216
     212     213     213     214     213     215     214     215
     216     217     217     218     217     223     218     219
     219     220     219     222     220     221     221     222
     223     224     224     225     224     230     225     226
     226     227     226     229     227     228     228     229
     230     231     231     232     231     237     232     233
     233     234     233     236     234     235     235     236
     237     238     238     239     238     243     239     240
     240     241     240     242     241     242     243     244
     244     245     244     250     245     246     246     247
     246     249     247     248     248     249     250     251
     251     252     251     257     252     253     253     254
     253     256     254     255     255     256     257     258
     258     259     258     264     259     260     260     261
     260     263     261     262     262     263     264     265
     265     266     265     271     266     267     267     268
     267     270     268     269     269     270     271     272
     272     273     272     277     273     274     274     275
     274     276     275     276     277     278     278     279
     278     284     279     280     280     281     280     283
     281     282     282     283     284     285     285     286
     285     290     286     287     287     288     287     289
     288     289     290     291     291     292     291     297
     292     293     293     294     293     296     294     295
     295     296     297     298     298     299     298     304
     299     300     300     301     300     303     301     302
     302     303     304     305     305     306     305     311
     306     307     307     308     307     310     308     309
     309     310     311     312     312     313     312     317
     313     314     314     315     314     316     315     316
     317     318     318     319     318     323     319     320
     320     321     320     322     321     322     323     324
     324     325     325     326     326     327     326     328
     327     328

     409 !NTHETA: angles
       1       2       3       1       3       2       1       3       4
       2       1       3       3       4       6       4       5       6
       5       6       4       6       4       5       7       2       1
       7       2       3       8       9      10       8       9      15
       9      15      16       9      10      11       9      10      15
      10      11      12      10      11      14      11      12      13
      12      13      14      13      14      11      15      16      17
      15      16      22      16      22      23      16      17      18
      16      17      22      17      18      19      17      18      21
      18      19      20      19      20      21      20      21      18
      22      23      24      22      23      29      23      29      30
      23      24      25      23      24      29      24      25      26
      24      25      28      25      26      27      26      27      28
      27      28      25      29      30      31      29      30      36
      30      36      37      30      31      32      30      31      36
      31      32      33      31      32      35      32      33      34
      33      34      35      34      35      32      36      37      38
      36      37      42      37      42      43      37      38      39
      37      38      42      38      39      41      42      43      44
      42      43      49      43      49      50      43      44      45
      43      44      49      44      45      46      44      45      48
      45      46      47      46      47      48      47      48      45
      49      50      51      49      50      56      50      56      57
      50      51      52      50      51      56      51      52      53
      51      52      55      52      53      54      53      54      55
      54      55      52      56      57      58      56      57      62
      57      62      63      57      58      59      57      58      62
      58      59      61      62      63      64      62      63      68
      63      68      69      63      64      65      63      64      68
      64      65      67      68      69      70      68      69      75
      69      75      76      69      70      71      69      70      75
      70      71      72      70      71      74      71      72      73
      72      73      74      73      74      71      75      76      77
      75      76      82      76      82      83      76      77      78
      76      77      82      77      78      79      77      78      81
      78      79      80      79      80      81      80      81      78
      82      83      84      82      83      89      83      89      90
      83      84      85      83      84      89      84      85      86
      84      85      88      85      86      87      86      87      88
      87      88      85      89      90      91      89      90      95
      90      95      96      90      91      92      90      91      95
      91      92      94      95      96      97      95      96     101
      96     101     102      96      97      98      96      97     101
      97      98     100     101     102     103     101     102     107
     102     107     108     102     103     104     102     103     107
     103     104     106     107     108     109     107     108     114
     108     114     115     108     109     110     108     109     114
     109     110     111     109     110     113     110     111     112
     111     112     113     112     113     110     114     115     116
     114     115     121     115     121     122     115     116     117
     115     116     121     116     117     118     116     117     120
     117     118     119     118     119     120     119     120     117
     121     122     123     121     122     128     122     128     129
     122     123     124     122     123     128     123     124     125
     123     124     127     124     125     126     125     126     127
     126     127     124     128     129     130     128     129     134
     129     134     135     129     130     131     129     130     134
     130     131     133     134     135     136     134     135     141
     135     141     142     135     136     137     135     136     141
     136     137     138     136     137     140     137     138     139
     138     139     140     139     140     137     141     142     143
     141     142     147     142     147     148     142     143     144
     142     143     147     143     144     146     147     148     149
     147     148     153     148     153     154     148     149     150
     148     149     153     149     150     152     153     154     155
     153     154     159     154     159     160     154     155     156
     154     155     159     155     156     158     159     160     161
     159     160     166     160     166     167     160     161     162
     160     161     166     161     162     163     161     162     165
     162     163     164     163     164     165     164     165     162
     166     167     168     166     167     172     167     172     173
     167     168     169     167     168     172     168     169     171
     172     173     174     172     173     179     173     179     180
     173     174     175     173     174     179     174     175     176
     174     175     178     175     176     177     176     177     178
     177     178     175     179     180     181     179     180     185
     180     185     186     180     181     182     180     181     185
     181     182     184     185     186     187     185     186     191
     186     191     192     186     187     188     186     187     191
     187     188     190     191     192     193     191     192     197
     192     197     198     192     193     194     192     193     197
     193     194     196     197     198     199     197     198     204
     198     204     205     198     199     200     198     199     204
     199     200     201     199     200     203     200     201     202
     201     202     203     202     203     200     204     205     206
     204     205     210     205     210     211     205     206     207
     205     206     210     206     207     209     210     211     212
     210     211     216     211     216     217     211     212     213
     211     212     216     212     213     215     216     217     218
     216     217     223     217     223     224     217     218     219
     217     218     223     218     219     220     218     219     222
     219     220     221     220     221     222     221     222     219
     223     224     225     223     224     230     224     230     231
     224     225     226     224     225     230     225     226     227
     225     226     229     226     227     228     227     228     229
     228     229     226     230     231     232     230     231     237
     231     237     238     231     232     233     231     232     237
     232     233     234     232     233     236     233     234     235
     234     235     236     235     236     233     237     238     239
     237     238     243     238     243     244     238     239     240
     238     239     243     239     240     242     243     244     245
     243     244     250     244     250     251     244     245     246
     244     245     250     245     246     247     245     246     249
     246     247     248     247     248     249     248     249     246
     250     251     252     250     251     257     251     257     258
     251     252     253     251     252     257     252     253     254
     252     253     256     253     254     255     254     255     256
     255     256     253     257     258     259     257     258     264
     258     264     265     258     259     260     258     259     264
     259     260     261     259     260     263     260     261     262
     261     262     263     262     263     260     264     265     266
     264     265     271     265     271     272     265     266     267
     265     266     271     266     267     268     266     267     270
     267     268     269     268     269     270     269     270     267
     271     272     273     271     272     277     272     277     278
     272     273     274     272     273     277     273     274     276
     277     278     279     277     278     284     278     284     285
     278     279     280     278     279     284     279     280     281
     279     280     283     280     281     282     281     282     283
     282     283     280     284     285     286     284     285     290
     285     290     291     285     286     287     285     286     290
     286     287     289     290     291     292     290     291     297
     291     297     298     291     292     293     291     292     297
     292     293     294     292     293     296     293     294     295
     294     295     296     295     296     293     297     298     299
     297     298     304     298     304     305     298     299     300
     298     299     304     299     300     301     299     300     303
     300     301     302     301     302     303     302     303     300
     304     305     306     304     305     311     305     311     312
     305     306     307     305     306     311     306     307     308
     306     307     310     307     308     309     308     309     310
     309     310     307     311     312     313     311     312     317
     312     317     318     312     313     314     312     313     317
     313     314     316     317     318     319     317     318     323
     318     323     324     318     319     320     318     319     323
     319     320     322     323     324     325     324     325     326
     325     326     328

     200 !NPHI: dihedrals
       1       3       4       6       8       9      10      11
       9      15      16      22       9      10      11      12
      11      12      14      13      11      12      13      14
      15      16      17      18      16      22      23      29
      16      17      18      19      18      19      21      20
      18      19      20      21      22      23      24      25
      23      29      30      36      23      24      25      26
      25      26      28      27      25      26      27      28
      29      30      31      32      30      36      37      42
      30      31      32      33      32      33      35      34
      32      33      34      35      36      37      38      39
      37      42      43      49      37      38      39      41
      42      43      44      45      43      49      50      56
      43      44      45      46      45      46      48      47
      45      46      47      48      49      50      51      52
      50      56      57      62      50      51      52      53
      52      53      55      54      52      53      54      55
      56      57      58      59      57      62      63      68
      57      58      59      61      62      63      64      65
      63      68      69      75      63      64      65      67
      68      69      70      71      69      75      76      82
      69      70      71      72      71      72      74      73
      71      72      73      74      75      76      77      78
      76      82      83      89      76      77      78      79
      78      79      81      80      78      79      80      81
      82      83      84      85      83      89      90      95
      83      84      85      86      85      86      88      87
      85      86      87      88      89      90      91      92
      90      95      96     101      90      91      92      94
      95      96      97      98      96     101     102     107
      96      97      98     100     101     102     103     104
     102     107     108     114     102     103     104     106
     107     108     109     110     108     114     115     121
     108     109     110     111     110     111     113     112
     110     111     112     113     114     115     116     117
     115     121     122     128     115     116     117     118
     117     118     120     119     117     118     119     120
     121     122     123     124     122     128     129     134
     122     123     124     125     124     125     127     126
     124     125     126     127     128     129     130     131
     129     134     135     141     129     130     131     133
     134     135     136     137     135     141     142     147
     135     136     137     138     137     138     140     139
     137     138     139     140     141     142     143     144
     142     147     148     153     142     143     144     146
     147     148     149     150     148     153     154     159
     148     149     150     152     153     154     155     156
     154     159     160     166     154     155     156     158
     159     160     161     162     160     166     167     172
     160     161     162     163     162     163     165     164
     162     163     164     165     166     167     168     169
     167     172     173     179     167     168     169     171
     172     173     174     175     173     179     180     185
     173     174     175     176     175     176     178     177
     175     176     177     178     179     180     181     182
     180     185     186     191     180     181     182     184
     185     186     187     188     186     191     192     197
     186     187     188     190     191     192     193     194
     192     197     198     204     192     193     194     196
     197     198     199     200     198     204     205     210
     198     199     200     201     200     201     203     202
     200     201     202     203     204     205     206     207
     205     210     211     216     205     206     207     209
     210     211     212     213     211     216     217     223
     211     212     213     215     216     217     218     219
     217     223     224     230     217     218     219     220
     219     220     222     221     219     220     221     222
     223     224     225     226     224     230     231     237
     224     225     226     227     226     227     229     228
     226     227     228     229     230     231     232     233
     231     237     238     243     231     232     233     234
     233     234     236     235     233     234     235     236
     237     238     239     240     238     243     244     250
     238     239     240     242     243     244     245     246
     244     250     251     257     244     245     246     247
     246     247     249     248     246     247     248     249
     250     251     252     253     251     257     258     264
     251     252     253     254     253     254     256     255
     253     254     255     256     257     258     259     260
     258     264     265     271     258     259     260     261
     260     261     263     262     260     261     262     263
     264     265     266     267     265     271     272     277
     265     266     267     268     267     268     270     269
     267     268     269     270     271     272     273     274
     272     277     278     284     272     273     274     276
     277     278     279     280     278     284     285     290
     278     279     280     281     280     281     283     282
     280     281     282     283     284     285     286     287
     285     290     291     297     285     286     287     289
     290     291     292     293     291     297     298     304
     291     292     293     294     293     294     296     295
     293     294     295     296     297     298     299     300
     298     304     305     311     298     299     300     301
     300     301     303     302     300     301     302     303
     304     305     306     307     305     311     312     317
     305     306     307     308     307     308     310     309
     307     308     309     310     311     312     313     314
     312     317     318     323     312     313     314     316
     317     318     319     320     318     319     320     322
     323     324     325     326     324     325     326     328

      99 !NIMPHI: impropers
       3       1       2       4       4       6       5       3
       9       8      15      10      11      10      12      14
      16      15      22      17      18      17      19      21
      23      22      29      24      25      24      26      28
      30      29      36      31      32      31      33      35
      37      36      42      38      39      38      40      41
      43      42      49      44      45      44      46      48
      50      49      56      51      52      51      53      55
      57      56      62      58      59      58      60      61
      63      62      68      64      65      64      66      67
      69      68      75      70      71      70      72      74
      76      75      82      77      78      77      79      81
      83      82      89      84      85      84      86      88
      90      89      95      91      92      91      93      94
      96      95     101      97      98      97      99     100
     102     101     107     103     104     103     105     106
     108     107     114     109     110     109     111     113
     115     114     121     116     117     116     118     120
     122     121     128     123     124     123     125     127
     129     128     134     130     131     130     132     133
     135     134     141     136     137     136     138     140
     142     141     147     143     144     143     145     146
     148     147     153     149     150     149     151     152
     154     153     159     155     156     155     157     158
     160     159     166     161     162     161     163     165
     167     166     172     168     169     168     170     171
     173     172     179     174     175     174     176     178
     180     179     185     181     182     181     183     184
     186     185     191     187     188     187     189     190
     192     191     197     193     194     193     195     196
     198     197     204     199     200     199     201     203
     205     204     210     206     207     206     208     209
     211     210     216     212     213     212     214     215
     217     216     223     218     219     218     220     222
     224     223     230     225     226     225     227     229
     231     230     237     232     233     232     234     236
     238     237     243     239     240     239     241     242
     244     243     250     245     246     245     247     249
     251     250     257     252     253     252     254     256
     258     257     264     259     260     259     261     263
     265     264     271     266     267     266     268     270
     272     271     277     273     274     273     275     276
     278     277     284     279     280     279     281     283
     285     284     290     286     287     286     288     289
     291     290     297     292     293     292     294     296
     298     297     304     299     300     299     301     303
     305     304     311     306     307     306     308     310
     312     311     317     313     314     313     315     316
     318     317     323     319     320     319     321     322
     326     325     327     328

       0 !NDON: donors


       0 !NACC: acceptors


       0 !NNB

       0       0       0       0       0       0       0       0
       0       0       0       0       0       0       0       0
       0       0       0       0       0       0       0       0
       0       0       0       0       0       0       0       0
       0       0       0       0       0       0       0       0
       0       0       0       0       0       0       0       0
       0       0       0       0       0       0       0       0
       0       0       0       0       0       0       0       0
       0       0       0       0       0       0       0       0
       0       0       0       0       0       0       0       0
       0       0       0       0       0       0       0       0
       0       0       0       0       0       0       0       0
       0       0       0       0       0       0       0       0
       0       0       0       0       0       0       0       0
       0       0       0       0       0       0       0       0
       0       0       0       0       0       0       0       0
       0       0       0       0       0       0       0       0
       0       0       0       0       0       0       0       0
       0       0       0       0       0       0       0       0
       0       0       0       0       0       0       0       0
       0       0       0       0       0       0       0       0
       0       0       0       0       0       0       0       0
       0       0       0       0       0       0       0       0
       0       0       0       0       0       0       0       0
       0       0       0       0       0       0       0       0
       0       0       0       0       0       0       0       0
       0       0       0       0       0       0       0       0
       0       0       0       0       0       0       0       0
       0       0       0       0       0       0       0       0
       0       0       0       0       0       0       0       0
       0       0       0       0       0       0       0       0
       0       0       0       0       0       0       0       0
       0       0       0       0       0       0       0       0
       0       0       0       0       0       0       0       0
       0       0       0       0       0       0       0       0
       0       0       0       0       0       0       0       0
       0       0       0       0       0       0       0       0
       0       0       0       0       0       0       0       0
       0       0       0       0       0       0       0       0
       0       0       0       0       0       0       0       0
       0       0       0       0       0       0       0       0

       1       0 !NGRP
       0       0       0

