PSF

       3 !NTITLE
 REMARKS original generated structure x-plor psf file
 REMARKS topology /home/allenchen/brocspin/script/top_iConRNA_dfhbi.inp 
 REMARKS segment RA0 { first none; last none; auto none  }

       7 !NATOM
       1 RA0  1    ADE  P    BP    -1.000000       94.9700           0
       2 RA0  1    ADE  C1   BC1    0.000000       48.0650           0
       3 RA0  1    ADE  C2   BC2    0.000000       51.0450           0
       4 RA0  1    ADE  NA   N1C    0.000000       26.0180           0
       5 RA0  1    ADE  NB   CNC    0.000000       39.0370           0
       6 RA0  1    ADE  NC   NCN    0.000000       42.0410           0
       7 RA0  1    ADE  ND   N2C    0.000000       27.0260           0

       7 !NBOND: bonds
       1       2       2       3       3       4       4       5
       4       7       5       6       6       7

       7 !NTHETA: angles
       1       2       3       2       3       4       3       4       5
       3       4       7       4       5       6       5       6       7
       6       7       4

       4 !NPHI: dihedrals
       1       2       3       4       2       3       4       5
       4       5       7       6       4       5       6       7

       1 !NIMPHI: impropers
       4       3       5       7

       0 !NDON: donors


       0 !NACC: acceptors


       0 !NNB

       0       0       0       0       0       0       0

       1       0 !NGRP
       0       0       0

