PSF

       3 !NTITLE
 REMARKS original generated structure x-plor psf file
 REMARKS topology /home/allenchen/brocspin/script/top_iConRNA_dfhbi.inp 
 REMARKS segment RA0 { first none; last none; auto none  }

       7 !NATOM
       1 RA0  1    DFH  B1   A1     0.000000       38.0290           0
       2 RA0  1    DFH  B2   A2     0.000000       54.0280           0
       3 RA0  1    DFH  B3   A3     0.000000       24.0220           0
       4 RA0  1    DFH  B4   A4     0.000000       24.0220           0
       5 RA0  1    DFH  B5   A5     0.000000       43.0200           0
       6 RA0  1    DFH  B6   A6     0.000000       59.0190           0
       7 RA0  1    DFH  B7   A7     0.000000       69.0050           0

       8 !NBOND: bonds
       1       2       1       3       2       3       2       7
       3       4       4       6       4       5       5       6

      12 !NTHETA: angles
       1       2       3       1       3       2       1       3       4
       2       1       3       2       3       4       3       4       6
       3       4       5       4       5       6       5       6       4
       6       4       5       7       2       1       7       2       3

       2 !NPHI: dihedrals
       2       3       4       5       7       2       3       4

       3 !NIMPHI: impropers
       2       3       1       7       3       1       2       4
       4       3       5       6

       0 !NDON: donors


       0 !NACC: acceptors


       0 !NNB

       0       0       0       0       0       0       0

       1       0 !NGRP
       0       0       0

